# vtk DataFile Version 3.0
vtk output
ASCII
DATASET POLYDATA
POINTS 4 float
0 0 0
9 0 0
0 9 0
9 0 9
LINES 5 15
2 0 1
2 1 3
2 3 2
2 2 0
2 0 3
CELL_DATA 5
scalars cellvar float
LOOKUP_TABLE default
2.0 2.4 2.1 2.2 2.3
POINT_DATA 4
scalars pointvar float
LOOKUP_TABLE default
1.2 1.3 1.4 1.5
